ITEM: TIMESTEP
0.000000
ITEM: NUMBER OF ATOMS
1944
ITEM: BOX BOUNDS pp pp pp
0 117.961290
0 37.800000
0 0
ITEM: ATOMS id type x y vx vy radius m coll
0 1 2.100 2.100000 0.747989 -32.276659 1.000000 0.001000 0
1 1 2.100 4.200000 -1.082461 -32.081830 1.000000 0.001000 0
2 1 2.100 6.300000 -1.240777 -33.933505 1.000000 0.001000 0
3 1 2.100 8.400000 -0.950078 -32.258432 1.000000 0.001000 0
4 1 2.100 10.500000 -2.009650 -34.242652 1.000000 0.001000 0
5 1 2.100 12.600000 -2.769578 -31.963740 1.000000 0.001000 0
6 1 2.100 14.700000 -2.904925 -33.945048 1.000000 0.001000 0
7 1 2.100 16.800000 -1.874357 -31.165010 1.000000 0.001000 0
8 1 2.100 18.900000 0.572691 -34.070424 1.000000 0.001000 0
9 1 2.100 21.000000 -0.647153 -31.714967 1.000000 0.001000 0
10 1 2.100 23.100000 0.628986 -31.417141 1.000000 0.001000 0
11 1 2.100 25.200000 -1.052113 -33.504442 1.000000 0.001000 0
12 1 2.100 27.300000 -0.430529 -33.417505 1.000000 0.001000 0
13 1 2.100 29.400000 -1.466345 -32.586148 1.000000 0.001000 0
14 1 2.100 31.500000 0.312214 -31.709856 1.000000 0.001000 0
15 1 2.100 33.600000 0.173175 -31.364075 1.000000 0.001000 0
16 1 2.100 35.700000 -1.147094 -33.556947 1.000000 0.001000 0
17 1 2.100 0.000000 -0.106181 -31.614523 1.000000 0.001000 0
18 1 4.200 2.100000 -1.053027 -33.782756 1.000000 0.001000 0
19 1 4.200 4.200000 -2.489468 -34.090054 1.000000 0.001000 0
20 1 4.200 6.300000 -1.608894 -33.676823 1.000000 0.001000 0
21 1 4.200 8.400000 -0.247772 -32.094904 1.000000 0.001000 0
22 1 4.200 10.500000 -0.460306 -34.133137 1.000000 0.001000 0
23 1 4.200 12.600000 -0.498344 -34.283296 1.000000 0.001000 0
24 1 4.200 14.700000 0.718462 -34.442085 1.000000 0.001000 0
25 1 4.200 16.800000 -0.285016 -32.379884 1.000000 0.001000 0
26 1 4.200 18.900000 -1.117259 -32.571067 1.000000 0.001000 0
27 1 4.200 21.000000 -2.756269 -31.489874 1.000000 0.001000 0
28 1 4.200 23.100000 0.317716 -33.631948 1.000000 0.001000 0
29 1 4.200 25.200000 -2.909431 -32.739453 1.000000 0.001000 0
30 1 4.200 27.300000 -1.953552 -34.645598 1.000000 0.001000 0
31 1 4.200 29.400000 -1.678125 -33.772081 1.000000 0.001000 0
32 1 4.200 31.500000 -1.256956 -34.511700 1.000000 0.001000 0
33 1 4.200 33.600000 -2.281232 -34.668351 1.000000 0.001000 0
34 1 4.200 35.700000 -1.056154 -34.012550 1.000000 0.001000 0
35 1 4.200 0.000000 0.434168 -31.965365 1.000000 0.001000 0
36 1 6.300 2.100000 -1.941582 -33.355716 1.000000 0.001000 0
37 1 6.300 4.200000 -0.817067 -32.912385 1.000000 0.001000 0
38 1 6.300 6.300000 -2.549652 -31.965339 1.000000 0.001000 0
39 1 6.300 8.400000 -2.473643 -32.340700 1.000000 0.001000 0
40 1 6.300 10.500000 -2.908766 -32.143327 1.000000 0.001000 0
41 1 6.300 12.600000 -1.071365 -31.435695 1.000000 0.001000 0
42 1 6.300 14.700000 -1.737005 -32.206141 1.000000 0.001000 0
43 1 6.300 16.800000 -0.462236 -30.997579 1.000000 0.001000 0
44 1 6.300 18.900000 -0.573118 -33.581884 1.000000 0.001000 0
45 1 6.300 21.000000 -2.736177 -32.163303 1.000000 0.001000 0
46 1 6.300 23.100000 0.561554 -31.056000 1.000000 0.001000 0
47 1 6.300 25.200000 -1.625336 -33.943275 1.000000 0.001000 0
48 1 6.300 27.300000 -2.900806 -33.404904 1.000000 0.001000 0
49 1 6.300 29.400000 0.416543 -32.646884 1.000000 0.001000 0
50 1 6.300 31.500000 -1.648353 -31.958859 1.000000 0.001000 0
51 1 6.300 33.600000 -1.220263 -31.500848 1.000000 0.001000 0
52 1 6.300 35.700000 -1.595718 -33.196492 1.000000 0.001000 0
53 1 6.300 0.000000 0.725128 -31.291213 1.000000 0.001000 0
54 1 8.400 2.100000 1.592661 -1.544670 1.000000 1.000000 0
55 1 8.400 4.200000 1.464425 -0.504080 1.000000 1.000000 0
56 1 8.400 6.300000 1.458052 0.544225 1.000000 1.000000 0
57 1 8.400 8.400000 -1.865181 1.613625 1.000000 1.000000 0
58 1 8.400 10.500000 1.054594 1.008602 1.000000 1.000000 0
59 1 8.400 12.600000 -0.768129 -0.688746 1.000000 1.000000 0
60 1 8.400 14.700000 -1.798434 1.179120 1.000000 1.000000 0
61 1 8.400 16.800000 -0.026378 -1.446614 1.000000 1.000000 0
62 1 8.400 18.900000 1.864514 -0.257282 1.000000 1.000000 0
63 1 8.400 21.000000 -0.645309 1.781449 1.000000 1.000000 0
64 1 8.400 23.100000 1.383390 -0.082449 1.000000 1.000000 0
65 1 8.400 25.200000 -0.754432 -0.749868 1.000000 1.000000 0
66 1 8.400 27.300000 -0.433858 1.859569 1.000000 1.000000 0
67 1 8.400 29.400000 -1.658812 0.897412 1.000000 1.000000 0
68 1 8.400 31.500000 -1.763325 0.313373 1.000000 1.000000 0
69 1 8.400 33.600000 0.651649 -1.911621 1.000000 1.000000 0
70 1 8.400 35.700000 1.208794 1.790900 1.000000 1.000000 0
71 1 8.400 0.000000 -0.769848 0.044756 1.000000 1.000000 0
72 1 10.500 2.100000 0.981943 -0.884545 1.000000 1.000000 0
73 1 10.500 4.200000 -0.945149 -1.296978 1.000000 1.000000 0
74 1 10.500 6.300000 1.741702 -1.797799 1.000000 1.000000 0
75 1 10.500 8.400000 -0.450071 -0.204998 1.000000 1.000000 0
76 1 10.500 10.500000 -0.356919 -0.743582 1.000000 1.000000 0
77 1 10.500 12.600000 -0.782387 1.794235 1.000000 1.000000 0
78 1 10.500 14.700000 -1.116053 -0.344855 1.000000 1.000000 0
79 1 10.500 16.800000 -1.575074 1.763078 1.000000 1.000000 0
80 1 10.500 18.900000 1.029880 0.830139 1.000000 1.000000 0
81 1 10.500 21.000000 -0.734301 0.616454 1.000000 1.000000 0
82 1 10.500 23.100000 -0.803422 -1.215953 1.000000 1.000000 0
83 1 10.500 25.200000 1.882211 0.632443 1.000000 1.000000 0
84 1 10.500 27.300000 1.496083 -0.205372 1.000000 1.000000 0
85 1 10.500 29.400000 -0.444964 1.286647 1.000000 1.000000 0
86 1 10.500 31.500000 -0.381401 -1.563227 1.000000 1.000000 0
87 1 10.500 33.600000 -1.658176 -0.277073 1.000000 1.000000 0
88 1 10.500 35.700000 0.971740 1.665932 1.000000 1.000000 0
89 1 10.500 0.000000 1.797724 0.356772 1.000000 1.000000 0
90 1 12.600 2.100000 1.803566 -0.189302 1.000000 1.000000 0
91 1 12.600 4.200000 -0.638720 -0.332111 1.000000 1.000000 0
92 1 12.600 6.300000 -0.240802 1.345421 1.000000 1.000000 0
93 1 12.600 8.400000 1.502546 1.754589 1.000000 1.000000 0
94 1 12.600 10.500000 0.010166 0.493384 1.000000 1.000000 0
95 1 12.600 12.600000 -1.232457 1.301849 1.000000 1.000000 0
96 1 12.600 14.700000 -0.940641 -1.083578 1.000000 1.000000 0
97 1 12.600 16.800000 -1.231046 1.099666 1.000000 1.000000 0
98 1 12.600 18.900000 -1.431390 1.005168 1.000000 1.000000 0
99 1 12.600 21.000000 1.727728 1.684175 1.000000 1.000000 0
100 1 12.600 23.100000 -0.625199 -1.680045 1.000000 1.000000 0
101 1 12.600 25.200000 -0.352635 -0.862993 1.000000 1.000000 0
102 1 12.600 27.300000 1.036327 0.335437 1.000000 1.000000 0
103 1 12.600 29.400000 0.174289 1.178835 1.000000 1.000000 0
104 1 12.600 31.500000 1.724434 1.156905 1.000000 1.000000 0
105 1 12.600 33.600000 -0.773248 1.516450 1.000000 1.000000 0
106 1 12.600 35.700000 -1.627391 -0.877220 1.000000 1.000000 0
107 1 12.600 0.000000 1.073402 1.768661 1.000000 1.000000 0
108 1 14.700 2.100000 -0.273012 0.957800 1.000000 1.000000 0
109 1 14.700 4.200000 0.821996 -1.689780 1.000000 1.000000 0
110 1 14.700 6.300000 -0.477795 -0.062437 1.000000 1.000000 0
111 1 14.700 8.400000 -0.736754 1.852118 1.000000 1.000000 0
112 1 14.700 10.500000 0.615864 1.475213 1.000000 1.000000 0
113 1 14.700 12.600000 1.055831 0.378180 1.000000 1.000000 0
114 1 14.700 14.700000 -1.646247 1.578483 1.000000 1.000000 0
115 1 14.700 16.800000 -1.686463 1.191424 1.000000 1.000000 0
116 1 14.700 18.900000 0.831500 -0.808728 1.000000 1.000000 0
117 1 14.700 21.000000 -1.413377 1.223925 1.000000 1.000000 0
118 1 14.700 23.100000 1.685803 -0.957782 1.000000 1.000000 0
119 1 14.700 25.200000 -1.606604 0.792349 1.000000 1.000000 0
120 1 14.700 27.300000 1.464029 0.125975 1.000000 1.000000 0
121 1 14.700 29.400000 -0.694914 -0.763184 1.000000 1.000000 0
122 1 14.700 31.500000 -1.199637 1.243707 1.000000 1.000000 0
123 1 14.700 33.600000 -1.025264 1.507445 1.000000 1.000000 0
124 1 14.700 35.700000 -0.042214 -1.603302 1.000000 1.000000 0
125 1 14.700 0.000000 0.907224 1.207611 1.000000 1.000000 0
126 1 16.800 2.100000 1.531110 -0.772979 1.000000 1.000000 0
127 1 16.800 4.200000 -0.286730 -0.028982 1.000000 1.000000 0
128 1 16.800 6.300000 0.443693 1.259650 1.000000 1.000000 0
129 1 16.800 8.400000 -1.448886 0.696865 1.000000 1.000000 0
130 1 16.800 10.500000 -0.263341 1.291317 1.000000 1.000000 0
131 1 16.800 12.600000 -1.018873 0.353942 1.000000 1.000000 0
132 1 16.800 14.700000 -0.857584 -1.012055 1.000000 1.000000 0
133 1 16.800 16.800000 1.707483 -0.326468 1.000000 1.000000 0
134 1 16.800 18.900000 -1.688793 1.769380 1.000000 1.000000 0
135 1 16.800 21.000000 -1.570120 0.019028 1.000000 1.000000 0
136 1 16.800 23.100000 0.805693 0.687071 1.000000 1.000000 0
137 1 16.800 25.200000 -0.535566 1.749043 1.000000 1.000000 0
138 1 16.800 27.300000 -1.004636 1.195525 1.000000 1.000000 0
139 1 16.800 29.400000 0.670825 0.493418 1.000000 1.000000 0
140 1 16.800 31.500000 0.148698 -0.533904 1.000000 1.000000 0
141 1 16.800 33.600000 0.693947 0.867282 1.000000 1.000000 0
142 1 16.800 35.700000 0.199549 -0.399804 1.000000 1.000000 0
143 1 16.800 0.000000 1.525213 -0.404110 1.000000 1.000000 0
144 1 18.900 2.100000 -1.435321 -0.656880 1.000000 1.000000 0
145 1 18.900 4.200000 -1.647935 -1.319953 1.000000 1.000000 0
146 1 18.900 6.300000 1.758147 1.608076 1.000000 1.000000 0
147 1 18.900 8.400000 1.138357 1.684156 1.000000 1.000000 0
148 1 18.900 10.500000 -1.068988 -1.061243 1.000000 1.000000 0
149 1 18.900 12.600000 0.419460 -0.973744 1.000000 1.000000 0
150 1 18.900 14.700000 -0.104145 -1.360779 1.000000 1.000000 0
151 1 18.900 16.800000 -1.381593 0.399761 1.000000 1.000000 0
152 1 18.900 18.900000 -0.904453 0.236001 1.000000 1.000000 0
153 1 18.900 21.000000 0.944235 -0.236585 1.000000 1.000000 0
154 1 18.900 23.100000 -1.515904 0.267459 1.000000 1.000000 0
155 1 18.900 25.200000 -0.010684 1.209971 1.000000 1.000000 0
156 1 18.900 27.300000 1.513112 1.220903 1.000000 1.000000 0
157 1 18.900 29.400000 -0.519488 1.373916 1.000000 1.000000 0
158 1 18.900 31.500000 1.180863 1.549315 1.000000 1.000000 0
159 1 18.900 33.600000 1.437921 -1.885049 1.000000 1.000000 0
160 1 18.900 35.700000 -1.695459 1.867298 1.000000 1.000000 0
161 1 18.900 0.000000 -1.779549 0.526913 1.000000 1.000000 0
162 1 21.000 2.100000 0.762913 -0.805724 1.000000 1.000000 0
163 1 21.000 4.200000 -1.813832 -1.774939 1.000000 1.000000 0
164 1 21.000 6.300000 1.211761 1.720374 1.000000 1.000000 0
165 1 21.000 8.400000 1.494771 1.485171 1.000000 1.000000 0
166 1 21.000 10.500000 -0.016623 -0.445278 1.000000 1.000000 0
167 1 21.000 12.600000 0.800244 -1.183387 1.000000 1.000000 0
168 1 21.000 14.700000 -1.005577 0.093563 1.000000 1.000000 0
169 1 21.000 16.800000 0.958757 0.171573 1.000000 1.000000 0
170 1 21.000 18.900000 0.334235 -1.146111 1.000000 1.000000 0
171 1 21.000 21.000000 -1.841973 1.224069 1.000000 1.000000 0
172 1 21.000 23.100000 -0.326031 -0.365347 1.000000 1.000000 0
173 1 21.000 25.200000 -1.214121 -1.102724 1.000000 1.000000 0
174 1 21.000 27.300000 0.073783 -1.831149 1.000000 1.000000 0
175 1 21.000 29.400000 1.544060 0.406029 1.000000 1.000000 0
176 1 21.000 31.500000 -1.431108 1.335929 1.000000 1.000000 0
177 1 21.000 33.600000 -0.922206 0.054768 1.000000 1.000000 0
178 1 21.000 35.700000 -1.812143 0.801329 1.000000 1.000000 0
179 1 21.000 0.000000 -1.517757 -0.817518 1.000000 1.000000 0
180 1 23.100 2.100000 -0.334338 0.069505 1.000000 1.000000 0
181 1 23.100 4.200000 -0.491498 -0.419678 1.000000 1.000000 0
182 1 23.100 6.300000 -1.601586 1.179000 1.000000 1.000000 0
183 1 23.100 8.400000 0.273471 1.685303 1.000000 1.000000 0
184 1 23.100 10.500000 -1.468018 -1.866411 1.000000 1.000000 0
185 1 23.100 12.600000 -0.869950 0.621040 1.000000 1.000000 0
186 1 23.100 14.700000 -1.633758 -1.742738 1.000000 1.000000 0
187 1 23.100 16.800000 -1.356691 -1.447485 1.000000 1.000000 0
188 1 23.100 18.900000 1.195121 0.802315 1.000000 1.000000 0
189 1 23.100 21.000000 -1.724927 1.855344 1.000000 1.000000 0
190 1 23.100 23.100000 -1.202733 -0.783106 1.000000 1.000000 0
191 1 23.100 25.200000 1.126968 0.790594 1.000000 1.000000 0
192 1 23.100 27.300000 0.644059 -1.794017 1.000000 1.000000 0
193 1 23.100 29.400000 -1.884024 -0.161062 1.000000 1.000000 0
194 1 23.100 31.500000 -1.658477 1.350884 1.000000 1.000000 0
195 1 23.100 33.600000 1.879190 -1.675934 1.000000 1.000000 0
196 1 23.100 35.700000 -1.854791 -0.185165 1.000000 1.000000 0
197 1 23.100 0.000000 0.297288 1.719940 1.000000 1.000000 0
198 1 25.200 2.100000 0.243769 -0.660750 1.000000 1.000000 0
199 1 25.200 4.200000 0.096007 -0.029981 1.000000 1.000000 0
200 1 25.200 6.300000 -1.147331 1.566370 1.000000 1.000000 0
201 1 25.200 8.400000 -1.228648 -1.737767 1.000000 1.000000 0
202 1 25.200 10.500000 0.661288 0.561111 1.000000 1.000000 0
203 1 25.200 12.600000 1.105331 -1.203027 1.000000 1.000000 0
204 1 25.200 14.700000 0.754646 -1.295174 1.000000 1.000000 0
205 1 25.200 16.800000 -1.687588 0.322188 1.000000 1.000000 0
206 1 25.200 18.900000 1.625703 -0.730200 1.000000 1.000000 0
207 1 25.200 21.000000 1.589884 -1.695580 1.000000 1.000000 0
208 1 25.200 23.100000 -0.885108 -1.404692 1.000000 1.000000 0
209 1 25.200 25.200000 -1.608856 -0.527511 1.000000 1.000000 0
210 1 25.200 27.300000 0.420658 -0.896627 1.000000 1.000000 0
211 1 25.200 29.400000 1.619830 0.634173 1.000000 1.000000 0
212 1 25.200 31.500000 0.404614 1.770504 1.000000 1.000000 0
213 1 25.200 33.600000 -0.330658 0.615665 1.000000 1.000000 0
214 1 25.200 35.700000 -1.576510 1.145120 1.000000 1.000000 0
215 1 25.200 0.000000 -0.513219 1.672200 1.000000 1.000000 0
216 1 27.300 2.100000 -1.042330 1.836979 1.000000 1.000000 0
217 1 27.300 4.200000 1.590916 1.073853 1.000000 1.000000 0
218 1 27.300 6.300000 -0.998585 1.270253 1.000000 1.000000 0
219 1 27.300 8.400000 1.673591 -0.065436 1.000000 1.000000 0
220 1 27.300 10.500000 0.341864 0.968102 1.000000 1.000000 0
221 1 27.300 12.600000 1.609083 0.877166 1.000000 1.000000 0
222 1 27.300 14.700000 1.046718 -0.436301 1.000000 1.000000 0
223 1 27.300 16.800000 -0.124802 -0.068235 1.000000 1.000000 0
224 1 27.300 18.900000 1.254276 1.278252 1.000000 1.000000 0
225 1 27.300 21.000000 -0.278739 -1.148376 1.000000 1.000000 0
226 1 27.300 23.100000 -0.103097 1.360443 1.000000 1.000000 0
227 1 27.300 25.200000 -1.191441 0.383692 1.000000 1.000000 0
228 1 27.300 27.300000 0.106707 1.074140 1.000000 1.000000 0
229 1 27.300 29.400000 -1.577576 -0.298087 1.000000 1.000000 0
230 1 27.300 31.500000 -0.817233 0.924028 1.000000 1.000000 0
231 1 27.300 33.600000 -0.265213 1.130238 1.000000 1.000000 0
232 1 27.300 35.700000 -1.122921 -0.881372 1.000000 1.000000 0
233 1 27.300 0.000000 -1.660984 -0.467925 1.000000 1.000000 0
234 1 29.400 2.100000 -0.245644 -1.613120 1.000000 1.000000 0
235 1 29.400 4.200000 0.228730 0.427523 1.000000 1.000000 0
236 1 29.400 6.300000 0.164609 0.557335 1.000000 1.000000 0
237 1 29.400 8.400000 0.237212 0.305025 1.000000 1.000000 0
238 1 29.400 10.500000 -0.611928 -1.471614 1.000000 1.000000 0
239 1 29.400 12.600000 1.314209 -1.692046 1.000000 1.000000 0
240 1 29.400 14.700000 1.319880 -0.847387 1.000000 1.000000 0
241 1 29.400 16.800000 0.981751 -1.447080 1.000000 1.000000 0
242 1 29.400 18.900000 -1.546888 -1.264963 1.000000 1.000000 0
243 1 29.400 21.000000 -1.314767 -0.154575 1.000000 1.000000 0
244 1 29.400 23.100000 1.227151 -0.277666 1.000000 1.000000 0
245 1 29.400 25.200000 0.547727 0.618427 1.000000 1.000000 0
246 1 29.400 27.300000 1.338249 -1.267043 1.000000 1.000000 0
247 1 29.400 29.400000 -1.805889 -0.420934 1.000000 1.000000 0
248 1 29.400 31.500000 -1.000047 -1.421730 1.000000 1.000000 0
249 1 29.400 33.600000 1.391780 1.794313 1.000000 1.000000 0
250 1 29.400 35.700000 0.143455 1.685698 1.000000 1.000000 0
251 1 29.400 0.000000 1.459589 -0.513349 1.000000 1.000000 0
252 1 31.500 2.100000 0.057226 -0.204247 1.000000 1.000000 0
253 1 31.500 4.200000 1.079732 0.009402 1.000000 1.000000 0
254 1 31.500 6.300000 1.820084 -1.043980 1.000000 1.000000 0
255 1 31.500 8.400000 -1.630087 -1.352007 1.000000 1.000000 0
256 1 31.500 10.500000 -0.953898 0.113363 1.000000 1.000000 0
257 1 31.500 12.600000 -0.977733 -1.083446 1.000000 1.000000 0
258 1 31.500 14.700000 1.838137 -0.925352 1.000000 1.000000 0
259 1 31.500 16.800000 1.221992 0.007509 1.000000 1.000000 0
260 1 31.500 18.900000 -1.220368 -1.577730 1.000000 1.000000 0
261 1 31.500 21.000000 0.256482 -1.654636 1.000000 1.000000 0
262 1 31.500 23.100000 -1.700790 1.690665 1.000000 1.000000 0
263 1 31.500 25.200000 -1.771546 -1.631844 1.000000 1.000000 0
264 1 31.500 27.300000 1.509044 -0.900545 1.000000 1.000000 0
265 1 31.500 29.400000 -1.903454 -0.682713 1.000000 1.000000 0
266 1 31.500 31.500000 -0.696794 -0.495085 1.000000 1.000000 0
267 1 31.500 33.600000 1.209313 -1.472932 1.000000 1.000000 0
268 1 31.500 35.700000 0.128679 -1.060328 1.000000 1.000000 0
269 1 31.500 0.000000 -0.332431 1.228997 1.000000 1.000000 0
270 1 33.600 2.100000 -1.026052 -1.510903 1.000000 1.000000 0
271 1 33.600 4.200000 1.550473 1.711747 1.000000 1.000000 0
272 1 33.600 6.300000 0.019879 1.536589 1.000000 1.000000 0
273 1 33.600 8.400000 0.825436 -0.701662 1.000000 1.000000 0
274 1 33.600 10.500000 0.270904 0.466042 1.000000 1.000000 0
275 1 33.600 12.600000 -0.348039 1.452429 1.000000 1.000000 0
276 1 33.600 14.700000 -1.238552 -0.049062 1.000000 1.000000 0
277 1 33.600 16.800000 -0.409952 -0.343325 1.000000 1.000000 0
278 1 33.600 18.900000 -1.157317 -0.973943 1.000000 1.000000 0
279 1 33.600 21.000000 0.040888 1.724483 1.000000 1.000000 0
280 1 33.600 23.100000 0.721438 -1.586711 1.000000 1.000000 0
281 1 33.600 25.200000 1.613191 -1.147026 1.000000 1.000000 0
282 1 33.600 27.300000 1.322547 -1.667919 1.000000 1.000000 0
283 1 33.600 29.400000 -1.656481 -1.360371 1.000000 1.000000 0
284 1 33.600 31.500000 -1.116758 -1.898053 1.000000 1.000000 0
285 1 33.600 33.600000 -0.056620 -0.576996 1.000000 1.000000 0
286 1 33.600 35.700000 1.245914 0.342336 1.000000 1.000000 0
287 1 33.600 0.000000 1.503076 1.604506 1.000000 1.000000 0
288 1 35.700 2.100000 -0.559321 1.191280 1.000000 1.000000 0
289 1 35.700 4.200000 -0.692860 0.539309 1.000000 1.000000 0
290 1 35.700 6.300000 -1.069588 0.447748 1.000000 1.000000 0
291 1 35.700 8.400000 1.277169 1.057090 1.000000 1.000000 0
292 1 35.700 10.500000 -1.175772 -1.558564 1.000000 1.000000 0
293 1 35.700 12.600000 -1.506329 -1.876583 1.000000 1.000000 0
294 1 35.700 14.700000 -1.620435 1.729892 1.000000 1.000000 0
295 1 35.700 16.800000 1.274833 -1.501480 1.000000 1.000000 0
296 1 35.700 18.900000 -0.244177 0.431900 1.000000 1.000000 0
297 1 35.700 21.000000 0.139445 -0.312051 1.000000 1.000000 0
298 1 35.700 23.100000 -1.582757 1.683541 1.000000 1.000000 0
299 1 35.700 25.200000 0.463241 1.547095 1.000000 1.000000 0
300 1 35.700 27.300000 -1.104848 0.040169 1.000000 1.000000 0
301 1 35.700 29.400000 1.164786 -1.754727 1.000000 1.000000 0
302 1 35.700 31.500000 -0.652161 1.160433 1.000000 1.000000 0
303 1 35.700 33.600000 -0.255444 0.662896 1.000000 1.000000 0
304 1 35.700 35.700000 -0.130310 0.429311 1.000000 1.000000 0
305 1 35.700 0.000000 -0.205567 0.589223 1.000000 1.000000 0
306 1 37.800 2.100000 -1.410881 1.763581 1.000000 1.000000 0
307 1 37.800 4.200000 -0.911525 0.306687 1.000000 1.000000 0
308 1 37.800 6.300000 -0.072621 -1.683178 1.000000 1.000000 0
309 1 37.800 8.400000 0.801771 0.003738 1.000000 1.000000 0
310 1 37.800 10.500000 -0.043178 -0.945893 1.000000 1.000000 0
311 1 37.800 12.600000 1.643080 0.214026 1.000000 1.000000 0
312 1 37.800 14.700000 0.737329 0.704446 1.000000 1.000000 0
313 1 37.800 16.800000 1.781309 1.284326 1.000000 1.000000 0
314 1 37.800 18.900000 -1.018011 1.502781 1.000000 1.000000 0
315 1 37.800 21.000000 1.416666 -1.360011 1.000000 1.000000 0
316 1 37.800 23.100000 -1.241646 1.215129 1.000000 1.000000 0
317 1 37.800 25.200000 -1.357569 1.635487 1.000000 1.000000 0
318 1 37.800 27.300000 -0.373714 1.380147 1.000000 1.000000 0
319 1 37.800 29.400000 -0.097015 -1.061926 1.000000 1.000000 0
320 1 37.800 31.500000 0.949935 -1.301578 1.000000 1.000000 0
321 1 37.800 33.600000 1.610794 1.803489 1.000000 1.000000 0
322 1 37.800 35.700000 0.788423 0.890223 1.000000 1.000000 0
323 1 37.800 0.000000 0.481412 0.046313 1.000000 1.000000 0
324 1 39.900 2.100000 -0.830332 -0.193496 1.000000 1.000000 0
325 1 39.900 4.200000 0.137657 1.455213 1.000000 1.000000 0
326 1 39.900 6.300000 -1.477448 0.359283 1.000000 1.000000 0
327 1 39.900 8.400000 0.045033 -0.491456 1.000000 1.000000 0
328 1 39.900 10.500000 1.514947 0.074839 1.000000 1.000000 0
329 1 39.900 12.600000 -1.388836 -1.492165 1.000000 1.000000 0
330 1 39.900 14.700000 0.922729 -0.260513 1.000000 1.000000 0
331 1 39.900 16.800000 1.450587 -0.660003 1.000000 1.000000 0
332 1 39.900 18.900000 -1.519782 -0.833648 1.000000 1.000000 0
333 1 39.900 21.000000 -1.549478 -0.165617 1.000000 1.000000 0
334 1 39.900 23.100000 -0.572376 -0.412528 1.000000 1.000000 0
335 1 39.900 25.200000 -0.635479 -1.136998 1.000000 1.000000 0
336 1 39.900 27.300000 -1.721504 -1.875813 1.000000 1.000000 0
337 1 39.900 29.400000 1.646538 0.082835 1.000000 1.000000 0
338 1 39.900 31.500000 1.577578 -1.815971 1.000000 1.000000 0
339 1 39.900 33.600000 -0.049814 -0.449437 1.000000 1.000000 0
340 1 39.900 35.700000 1.530134 1.541263 1.000000 1.000000 0
341 1 39.900 0.000000 -1.899088 0.774943 1.000000 1.000000 0
342 1 42.000 2.100000 1.576416 -0.475362 1.000000 1.000000 0
343 1 42.000 4.200000 -0.448769 0.759862 1.000000 1.000000 0
344 1 42.000 6.300000 -1.591018 -0.511681 1.000000 1.000000 0
345 1 42.000 8.400000 -1.113096 -1.809592 1.000000 1.000000 0
346 1 42.000 10.500000 0.678306 0.355631 1.000000 1.000000 0
347 1 42.000 12.600000 0.538122 0.129397 1.000000 1.000000 0
348 1 42.000 14.700000 0.960007 1.149973 1.000000 1.000000 0
349 1 42.000 16.800000 -0.846898 -1.622225 1.000000 1.000000 0
350 1 42.000 18.900000 -1.208132 -1.089362 1.000000 1.000000 0
351 1 42.000 21.000000 -1.031253 0.967830 1.000000 1.000000 0
352 1 42.000 23.100000 1.135392 0.974230 1.000000 1.000000 0
353 1 42.000 25.200000 0.852898 0.442979 1.000000 1.000000 0
354 1 42.000 27.300000 0.608525 -1.295871 1.000000 1.000000 0
355 1 42.000 29.400000 0.449410 -1.074303 1.000000 1.000000 0
356 1 42.000 31.500000 1.146723 -0.857775 1.000000 1.000000 0
357 1 42.000 33.600000 -1.875924 -1.840489 1.000000 1.000000 0
358 1 42.000 35.700000 -0.479289 0.260414 1.000000 1.000000 0
359 1 42.000 0.000000 0.076741 -1.283616 1.000000 1.000000 0
360 1 44.100 2.100000 0.172660 -1.781359 1.000000 1.000000 0
361 1 44.100 4.200000 -0.014114 -1.069377 1.000000 1.000000 0
362 1 44.100 6.300000 1.144557 1.700041 1.000000 1.000000 0
363 1 44.100 8.400000 1.843925 0.431951 1.000000 1.000000 0
364 1 44.100 10.500000 0.058760 1.326299 1.000000 1.000000 0
365 1 44.100 12.600000 1.014609 -1.658116 1.000000 1.000000 0
366 1 44.100 14.700000 -0.872771 -0.818613 1.000000 1.000000 0
367 1 44.100 16.800000 -1.272888 1.783050 1.000000 1.000000 0
368 1 44.100 18.900000 0.877763 0.498304 1.000000 1.000000 0
369 1 44.100 21.000000 0.560276 0.068000 1.000000 1.000000 0
370 1 44.100 23.100000 1.236287 0.684318 1.000000 1.000000 0
371 1 44.100 25.200000 0.175707 -1.269552 1.000000 1.000000 0
372 1 44.100 27.300000 -0.211656 1.264876 1.000000 1.000000 0
373 1 44.100 29.400000 1.602116 -0.329135 1.000000 1.000000 0
374 1 44.100 31.500000 -1.727198 -0.467009 1.000000 1.000000 0
375 1 44.100 33.600000 -0.266456 1.094396 1.000000 1.000000 0
376 1 44.100 35.700000 0.115707 1.510583 1.000000 1.000000 0
377 1 44.100 0.000000 1.565260 -1.760837 1.000000 1.000000 0
378 1 46.200 2.100000 -1.895644 1.227540 1.000000 1.000000 0
379 1 46.200 4.200000 -0.836750 0.292104 1.000000 1.000000 0
380 1 46.200 6.300000 -0.383830 0.571182 1.000000 1.000000 0
381 1 46.200 8.400000 1.333298 0.106493 1.000000 1.000000 0
382 1 46.200 10.500000 -1.692477 1.545305 1.000000 1.000000 0
383 1 46.200 12.600000 1.714116 0.728880 1.000000 1.000000 0
384 1 46.200 14.700000 0.987864 -0.213496 1.000000 1.000000 0
385 1 46.200 16.800000 -1.432532 -0.276810 1.000000 1.000000 0
386 1 46.200 18.900000 -0.829515 0.708463 1.000000 1.000000 0
387 1 46.200 21.000000 -0.099240 1.749154 1.000000 1.000000 0
388 1 46.200 23.100000 0.690500 1.413589 1.000000 1.000000 0
389 1 46.200 25.200000 0.255174 -0.489044 1.000000 1.000000 0
390 1 46.200 27.300000 -0.902069 -0.739018 1.000000 1.000000 0
391 1 46.200 29.400000 0.987598 -1.183819 1.000000 1.000000 0
392 1 46.200 31.500000 -0.719523 -1.379929 1.000000 1.000000 0
393 1 46.200 33.600000 -0.919455 0.830281 1.000000 1.000000 0
394 1 46.200 35.700000 -1.176138 1.057068 1.000000 1.000000 0
395 1 46.200 0.000000 -1.422584 0.677009 1.000000 1.000000 0
396 1 48.300 2.100000 -0.549666 -0.483317 1.000000 1.000000 0
397 1 48.300 4.200000 -1.786985 -0.044805 1.000000 1.000000 0
398 1 48.300 6.300000 0.905372 -0.645577 1.000000 1.000000 0
399 1 48.300 8.400000 -1.758243 1.065747 1.000000 1.000000 0
400 1 48.300 10.500000 -1.310701 -0.736502 1.000000 1.000000 0
401 1 48.300 12.600000 0.565919 0.375577 1.000000 1.000000 0
402 1 48.300 14.700000 1.879876 -1.333626 1.000000 1.000000 0
403 1 48.300 16.800000 0.838937 0.813548 1.000000 1.000000 0
404 1 48.300 18.900000 1.298079 0.512686 1.000000 1.000000 0
405 1 48.300 21.000000 0.958556 0.206320 1.000000 1.000000 0
406 1 48.300 23.100000 -1.458270 1.086233 1.000000 1.000000 0
407 1 48.300 25.200000 0.696893 -1.874020 1.000000 1.000000 0
408 1 48.300 27.300000 0.407042 -0.151825 1.000000 1.000000 0
409 1 48.300 29.400000 1.664371 -1.148146 1.000000 1.000000 0
410 1 48.300 31.500000 0.402727 1.815285 1.000000 1.000000 0
411 1 48.300 33.600000 0.648830 0.915122 1.000000 1.000000 0
412 1 48.300 35.700000 0.014701 -0.215511 1.000000 1.000000 0
413 1 48.300 0.000000 1.091870 1.360974 1.000000 1.000000 0
414 1 50.400 2.100000 1.147161 1.708072 1.000000 1.000000 0
415 1 50.400 4.200000 0.522777 0.248951 1.000000 1.000000 0
416 1 50.400 6.300000 -0.951605 -1.360344 1.000000 1.000000 0
417 1 50.400 8.400000 -0.622270 -1.548904 1.000000 1.000000 0
418 1 50.400 10.500000 1.479091 1.228665 1.000000 1.000000 0
419 1 50.400 12.600000 0.736163 -0.316994 1.000000 1.000000 0
420 1 50.400 14.700000 0.726768 0.135263 1.000000 1.000000 0
421 1 50.400 16.800000 -1.065536 0.503729 1.000000 1.000000 0
422 1 50.400 18.900000 -1.308220 0.070184 1.000000 1.000000 0
423 1 50.400 21.000000 -1.583802 -0.718263 1.000000 1.000000 0
424 1 50.400 23.100000 0.841495 -1.219039 1.000000 1.000000 0
425 1 50.400 25.200000 -1.082812 1.585970 1.000000 1.000000 0
426 1 50.400 27.300000 -0.008819 0.444297 1.000000 1.000000 0
427 1 50.400 29.400000 -1.708249 0.290264 1.000000 1.000000 0
428 1 50.400 31.500000 0.284520 1.616767 1.000000 1.000000 0
429 1 50.400 33.600000 0.863225 0.213646 1.000000 1.000000 0
430 1 50.400 35.700000 1.596648 -1.600379 1.000000 1.000000 0
431 1 50.400 0.000000 -1.891447 -0.252698 1.000000 1.000000 0
432 1 52.500 2.100000 -0.689932 0.551413 1.000000 1.000000 0
433 1 52.500 4.200000 0.599337 1.540565 1.000000 1.000000 0
434 1 52.500 6.300000 1.822896 -0.765694 1.000000 1.000000 0
435 1 52.500 8.400000 0.508253 -1.103426 1.000000 1.000000 0
436 1 52.500 10.500000 -0.425299 1.253261 1.000000 1.000000 0
437 1 52.500 12.600000 -1.118810 1.174377 1.000000 1.000000 0
438 1 52.500 14.700000 -0.758980 0.798700 1.000000 1.000000 0
439 1 52.500 16.800000 1.049174 -0.058813 1.000000 1.000000 0
440 1 52.500 18.900000 0.152693 -1.920330 1.000000 1.000000 0
441 1 52.500 21.000000 -0.433684 -1.842291 1.000000 1.000000 0
442 1 52.500 23.100000 0.046185 -0.464870 1.000000 1.000000 0
443 1 52.500 25.200000 -1.623628 1.040808 1.000000 1.000000 0
444 1 52.500 27.300000 0.360851 -1.027856 1.000000 1.000000 0
445 1 52.500 29.400000 0.649886 -1.882308 1.000000 1.000000 0
446 1 52.500 31.500000 -0.910543 1.604069 1.000000 1.000000 0
447 1 52.500 33.600000 1.623260 -0.679675 1.000000 1.000000 0
448 1 52.500 35.700000 1.129907 0.293056 1.000000 1.000000 0
449 1 52.500 0.000000 -1.483792 -0.541076 1.000000 1.000000 0
450 1 54.600 2.100000 -1.450747 -0.522679 1.000000 1.000000 0
451 1 54.600 4.200000 0.907708 1.867949 1.000000 1.000000 0
452 1 54.600 6.300000 0.093004 -0.273178 1.000000 1.000000 0
453 1 54.600 8.400000 -0.123128 -1.894615 1.000000 1.000000 0
454 1 54.600 10.500000 -0.212055 -1.840497 1.000000 1.000000 0
455 1 54.600 12.600000 -1.079073 0.520715 1.000000 1.000000 0
456 1 54.600 14.700000 1.746580 -0.480359 1.000000 1.000000 0
457 1 54.600 16.800000 -1.849171 -1.387443 1.000000 1.000000 0
458 1 54.600 18.900000 -1.498116 1.150306 1.000000 1.000000 0
459 1 54.600 21.000000 -1.849248 -1.225237 1.000000 1.000000 0
460 1 54.600 23.100000 -0.535069 -1.593547 1.000000 1.000000 0
461 1 54.600 25.200000 0.932809 0.895664 1.000000 1.000000 0
462 1 54.600 27.300000 -0.254574 -0.840509 1.000000 1.000000 0
463 1 54.600 29.400000 0.049888 1.049412 1.000000 1.000000 0
464 1 54.600 31.500000 1.236848 -1.338190 1.000000 1.000000 0
465 1 54.600 33.600000 -1.636927 1.468355 1.000000 1.000000 0
466 1 54.600 35.700000 1.583605 0.673824 1.000000 1.000000 0
467 1 54.600 0.000000 1.440614 1.304587 1.000000 1.000000 0
468 1 56.700 2.100000 -1.190542 1.578579 1.000000 1.000000 0
469 1 56.700 4.200000 -0.707277 0.644456 1.000000 1.000000 0
470 1 56.700 6.300000 0.724735 -0.018111 1.000000 1.000000 0
471 1 56.700 8.400000 -0.611285 0.562413 1.000000 1.000000 0
472 1 56.700 10.500000 -0.034227 -1.141485 1.000000 1.000000 0
473 1 56.700 12.600000 0.850408 -0.530712 1.000000 1.000000 0
474 1 56.700 14.700000 1.118887 1.177594 1.000000 1.000000 0
475 1 56.700 16.800000 -0.933213 -1.701888 1.000000 1.000000 0
476 1 56.700 18.900000 1.134634 0.179636 1.000000 1.000000 0
477 1 56.700 21.000000 -0.344258 -0.883442 1.000000 1.000000 0
478 1 56.700 23.100000 0.807903 0.685343 1.000000 1.000000 0
479 1 56.700 25.200000 -1.550777 -1.016570 1.000000 1.000000 0
480 1 56.700 27.300000 -1.167797 1.625394 1.000000 1.000000 0
481 1 56.700 29.400000 -0.696318 1.371948 1.000000 1.000000 0
482 1 56.700 31.500000 0.519804 -0.705803 1.000000 1.000000 0
483 1 56.700 33.600000 0.497632 0.348413 1.000000 1.000000 0
484 1 56.700 35.700000 0.737764 0.928526 1.000000 1.000000 0